Variables="X","Y","Z","GAMMA"
ZONE T="WING" i=5,j=26,k=1, ZONETYPE=Ordered
DATAPACKING=BLOCK
VARLOCATION=([4]=CELLCENTERED)
-0.000000
 0.826693
 1.653387
 2.480080
 3.306773
 0.365996
 1.177241
 1.988486
 2.799731
 3.610976
 0.730548
 1.521735
 2.312921
 3.104107
 3.895294
 1.092217
 1.858904
 2.625591
 3.392278
 4.158965
 1.449575
 2.187562
 2.925549
 3.663536
 4.401523
 1.801212
 2.506606
 3.211999
 3.917392
 4.622785
 2.145741
 2.815016
 3.484291
 4.153566
 4.822842
 2.481802
 3.111862
 3.741922
 4.371982
 5.002041
 2.808068
 3.396294
 3.984519
 4.572745
 5.160971
 3.123252
 3.667547
 4.211842
 4.756137
 5.300432
 3.426110
 3.924937
 4.423764
 4.922591
 5.421418
 3.715446
 4.167856
 4.620265
 5.072675
 5.525084
 3.990119
 4.395770
 4.801421
 5.207072
 5.612723
 4.249046
 4.608216
 4.967386
 5.326556
 5.685726
 4.491203
 4.804792
 5.118381
 5.431970
 5.745560
 4.715635
 4.985158
 5.254680
 5.524203
 5.793726
 4.921457
 5.149026
 5.376595
 5.604163
 5.831732
 5.107856
 5.296157
 5.484458
 5.672759
 5.861060
 5.274097
 5.426356
 5.578614
 5.730873
 5.883131
 5.419524
 5.539463
 5.659402
 5.779340
 5.899279
 5.543562
 5.635352
 5.727142
 5.818932
 5.910722
 5.645722
 5.713925
 5.782128
 5.850331
 5.918534
 5.725601
 5.775108
 5.824615
 5.874122
 5.923628
 5.782884
 5.818846
 5.854808
 5.890771
 5.926733
 5.817344
 5.845103
 5.872862
 5.900621
 5.928380
 5.828846
 5.853857
 5.878869
 5.903881
 5.928893
-0.000000
 -0.000000
 -0.000000
 -0.000000
 -0.000000
 0.784881
 0.784881
 0.784881
 0.784881
 0.784881
 1.566665
 1.566665
 1.566665
 1.566665
 1.566665
 2.342266
 2.342266
 2.342266
 2.342266
 2.342266
 3.108624
 3.108624
 3.108624
 3.108624
 3.108624
 3.862712
 3.862712
 3.862712
 3.862712
 3.862712
 4.601557
 4.601557
 4.601557
 4.601557
 4.601557
 5.322241
 5.322241
 5.322241
 5.322241
 5.322241
 6.021921
 6.021921
 6.021921
 6.021921
 6.021921
 6.697835
 6.697835
 6.697835
 6.697835
 6.697835
 7.347316
 7.347316
 7.347316
 7.347316
 7.347316
 7.967800
 7.967800
 7.967800
 7.967800
 7.967800
 8.556839
 8.556839
 8.556839
 8.556839
 8.556839
 9.112108
 9.112108
 9.112108
 9.112108
 9.112108
 9.631416
 9.631416
 9.631416
 9.631416
 9.631416
 10.112712
 10.112712
 10.112712
 10.112712
 10.112712
 10.554099
 10.554099
 10.554099
 10.554099
 10.554099
 10.953834
 10.953834
 10.953834
 10.953834
 10.953834
 11.310338
 11.310338
 11.310338
 11.310338
 11.310338
 11.622206
 11.622206
 11.622206
 11.622206
 11.622206
 11.888206
 11.888206
 11.888206
 11.888206
 11.888206
 12.107290
 12.107290
 12.107290
 12.107290
 12.107290
 12.278591
 12.278591
 12.278591
 12.278591
 12.278591
 12.401434
 12.401434
 12.401434
 12.401434
 12.401434
 12.475334
 12.475334
 12.475334
 12.475334
 12.475334
 12.500000
 12.500000
 12.500000
 12.500000
 12.500000
0.000000
 0.000000
 -0.000000
 -0.000000
 -0.000000
 -0.004703
 0.000000
 0.004703
 0.009407
 0.014110
 -0.008833
 0.000000
 0.008833
 0.017667
 0.026500
 -0.012334
 0.000000
 0.012334
 0.024668
 0.037002
 -0.015172
 0.000000
 0.015172
 0.030344
 0.045516
 -0.017336
 0.000000
 0.017336
 0.034672
 0.052008
 -0.018838
 0.000000
 0.018838
 0.037675
 0.056513
 -0.019707
 0.000000
 0.019707
 0.039415
 0.059122
 -0.019993
 0.000000
 0.019993
 0.039986
 0.059978
 -0.019756
 0.000000
 0.019756
 0.039512
 0.059268
 -0.019069
 0.000000
 0.019069
 0.038138
 0.057207
 -0.018010
 0.000000
 0.018010
 0.036021
 0.054031
 -0.016662
 0.000000
 0.016662
 0.033323
 0.049985
 -0.015105
 0.000000
 0.015105
 0.030209
 0.045314
 -0.013417
 0.000000
 0.013417
 0.026833
 0.040250
 -0.011671
 0.000000
 0.011671
 0.023341
 0.035012
 -0.009931
 0.000000
 0.009931
 0.019861
 0.029792
 -0.008254
 0.000000
 0.008254
 0.016507
 0.024761
 -0.006686
 0.000000
 0.006686
 0.013373
 0.020059
 -0.005267
 0.000000
 0.005267
 0.010535
 0.015802
 -0.004027
 0.000000
 0.004027
 0.008053
 0.012080
 -0.002987
 0.000000
 0.002987
 0.005973
 0.008960
 -0.002164
 0.000000
 0.002164
 0.004328
 0.006492
 -0.001569
 0.000000
 0.001569
 0.003139
 0.004708
 -0.001210
 0.000000
 0.001210
 0.002420
 0.003630
 -0.001090
 0.000000
 0.001090
 0.002181
 0.003271
0.713086
 1.053060
 1.272573
 1.401637
 0.752866
 1.085337
 1.291086
 1.407568
 0.760919
 1.088844
 1.287121
 1.397691
 0.752407
 1.073925
 1.266423
 1.373055
 0.733813
 1.046563
 1.233098
 1.336124
 0.708345
 1.010166
 1.189967
 1.289156
 0.677848
 0.966895
 1.139077
 1.234032
 0.643526
 0.918265
 1.081997
 1.172299
 0.606243
 0.865422
 1.019980
 1.105245
 0.566670
 0.809281
 0.954064
 1.033963
 0.525357
 0.750619
 0.885146
 0.959410
 0.482789
 0.690120
 0.814029
 0.882455
 0.439416
 0.628430
 0.741475
 0.803923
 0.395697
 0.566203
 0.668255
 0.724649
 0.352099
 0.504101
 0.595150
 0.645480
 0.309086
 0.442790
 0.522945
 0.567267
 0.267149
 0.382964
 0.452459
 0.490899
 0.226808
 0.325367
 0.384567
 0.417323
 0.188627
 0.270797
 0.320207
 0.347553
 0.153213
 0.220114
 0.260385
 0.282673
 0.121200
 0.174213
 0.206137
 0.223792
 0.093141
 0.133867
 0.158343
 0.171836
 0.069580
 0.099749
 0.117664
 0.127418
 0.050876
 0.071787
 0.083492
 0.089603
 0.034224
 0.044862
 0.050395
 0.053295
 